file 681617 1743584358                                          
version 3
run Qos-0-20250402-14:27:55-25172
attr configname Qos
attr datetime 20250402-14:27:55
attr datetimef 20250402-142755
attr experiment Qos
attr inifile omnetpp.ini
attr iterationvars ""
attr iterationvarsd ""
attr iterationvarsf ""
attr measurement ""
attr network QosShowcase
attr processid 25172
attr repetition 0
attr replication #0
attr resultdir results
attr runnumber 0
attr seedset 0
config image-path ../../inet-master/images
config extends NonQos
config *.*.wlan[*].mac.qosStation true
config *.*.wlan[*].classifier.typename QosClassifier
config network QosShowcase
config sim-time-limit 10s
config *.*.wlan[*].bitrate 54Mbps
config *.client.numApps 4
config *.client.app[*].typename UdpBasicApp
config *.client.app[*].destAddresses "\"server\""
config *.client.app[*].startTime 1.0s+this.sendInterval*index/4
config *.client.app[*].stopTime 6.0s
config *.client.app[0].destPort 21
config *.client.app[1].destPort 80
config *.client.app[2].destPort 4000
config *.client.app[3].destPort 5000
config *.client.app[0].packetName "\"background\""
config *.client.app[1].packetName "\"best effort\""
config *.client.app[2].packetName "\"video\""
config *.client.app[3].packetName "\"voice\""
config *.server.numApps 4
config *.server.app[*].typename UdpSink
config *.server.app[0].localPort 21
config *.server.app[1].localPort 80
config *.server.app[2].localPort 4000
config *.server.app[3].localPort 5000
config *.client.app[0].messageLength 900B
config *.client.app[0].sendInterval normal(300us,10us)
config *.client.app[1].messageLength 900B
config *.client.app[1].sendInterval normal(250us,10us)
config *.client.app[2].messageLength 600B
config *.client.app[2].sendInterval normal(1ms,10us)
config *.client.app[3].messageLength 125B
config *.client.app[3].sendInterval normal(10ms,10us)
config *.client.app[*].recordScalar true
config *.client.app[*].recordVector true
config *.server.app[*].recordScalar true
config *.server.app[*].recordVector true

vector 0 QosShowcase.ap.wlan[0].mac.dcf.channelAccess.pendingQueue queueLength:vector ETV
attr autoWarmupFilter false
attr interpolationmode sample-hold
attr recordingmode vector
attr source "warmup(atomic(constant0(packetPushEnded) + count(packetPushStarted) - count(packetPulled) - count(packetRemoved) - count(packetDropped)))"
attr title "queue length"
attr unit pk
vector 1 QosShowcase.ap.wlan[0].mac.dcf.channelAccess.pendingQueue queueBitLength:vector ETV
attr autoWarmupFilter false
attr interpolationmode sample-hold
attr recordingmode vector
attr source "warmup(atomic(constant0(packetPushEnded) + sum(packetLength(packetPushStarted)) - sum(packetLength(packetPulled)) - sum(packetLength(packetRemoved)) - sum(packetLength(packetDropped))))"
attr title "queue bit length"
attr unit b
vector 2 QosShowcase.ap.wlan[0].mac.dcf.channelAccess.pendingQueue queueingTime:vector ETV
attr interpolationmode none
attr recordingmode vector
attr source queueingTime(packetPulled)
attr title "queueing times"
attr unit s
vector 3 QosShowcase.ap.wlan[0].mac.dcf.channelAccess.pendingQueue incomingPacketLengths:vector ETV
attr interpolationmode none
attr recordingmode vector
attr source packetLength(packetPushStarted)
attr title "incoming packet lengths"
attr unit b
vector 4 QosShowcase.ap.wlan[0].mac.dcf.channelAccess.pendingQueue incomingDataRate:vector ETV
attr interpolationmode linear
attr recordingmode vector
attr source throughput(packetPushStarted)
attr title "incoming datarate"
attr unit bps
vector 5 QosShowcase.ap.wlan[0].mac.dcf.channelAccess.pendingQueue outgoingPacketLengths:vector ETV
attr interpolationmode none
attr recordingmode vector
attr source packetLength(packetPulled)
attr title "outgoing packet lengths"
attr unit b
vector 6 QosShowcase.ap.wlan[0].mac.dcf.channelAccess.pendingQueue outgoingDataRate:vector ETV
attr interpolationmode linear
attr recordingmode vector
attr source throughput(packetPulled)
attr title "outgoing datarate"
attr unit bps
vector 7 QosShowcase.ap.wlan[0].mac.dcf.channelAccess.pendingQueue droppedPacketLengthsQueueOverflow:vector ETV
attr interpolationmode none
attr recordingmode vector
attr source packetLength(packetDropReasonIsQueueOverflow(packetDropped))
attr title "dropped packet lengths: queue overflow"
attr unit b
vector 8 QosShowcase.ap.wlan[0].mac.dcf.channelAccess.pendingQueue flowQueueingTime:vector ETV
attr interpolationmode none
attr recordingmode vector
attr source queueingTime(demuxFlow(packetPulled))
attr title "flow queueing times"
attr unit s
vector 9 QosShowcase.ap.wlan[0].mac.dcf.channelAccess.pendingQueue flowIncomingDataRate:vector ETV
attr interpolationmode linear
attr recordingmode vector
attr source throughput(flowPacketLength(demuxFlow(packetPushStarted)))
attr title "flow specific incoming data rate"
attr unit bps
vector 10 QosShowcase.ap.wlan[0].mac.dcf.channelAccess.pendingQueue flowOutgoingDataRate:vector ETV
attr interpolationmode linear
attr recordingmode vector
attr source throughput(flowPacketLength(demuxFlow(packetPulled)))
attr title "flow specific outgoing data rate"
attr unit bps
vector 11 QosShowcase.ap.wlan[0].mac.dcf.channelAccess.inProgressFrames queueingTime:vector ETV
attr interpolationmode none
attr recordingmode vector
attr source queueingTime(packetDequeued)
attr title "queueing times"
vector 12 QosShowcase.ap.wlan[0].mac.dcf.channelAccess.inProgressFrames queueLength:vector ETV
attr autoWarmupFilter false
attr interpolationmode sample-hold
attr recordingmode vector
attr source "warmup(count(packetEnqueued) - count(packetDequeued))"
attr title "queue length"
vector 13 QosShowcase.ap.wlan[0].mac.dcf.channelAccess.contention backoffPeriodGenerated:vector ETV
attr interpolationmode none
attr recordingmode vector
attr title "backoff periods"
vector 14 QosShowcase.ap.wlan[0].mac.dcf.channelAccess.contention backoffActive:vector ETV
attr autoWarmupFilter false
attr interpolationmode sample-hold
attr recordingmode vector
attr source warmup(count(backoffStarted)-count(backoffStopped))
attr title "backoff active"
vector 15 QosShowcase.ap.wlan[0].mac.dcf.channelAccess.contention stateChanged:vector ETV
attr enum IDLE,DEFER,IFS_AND_BACKOFF
attr interpolationmode none
attr recordingmode vector
attr title "contention state changed"
attr type enum
vector 16 QosShowcase.ap.wlan[0].mac.dcf.recipientMacDataService packetDropDuplicateDetected:vector(packetBytes) ETV
attr interpolationmode none
attr recordingmode vector(packetBytes)
attr source packetDropReasonIsDuplicateDetected(packetDropped)
attr title "packet drops: duplicate detected, packetBytes"
vector 17 QosShowcase.ap.wlan[0].mac.dcf.recoveryProcedure contentionWindowChanged:vector ETV
attr interpolationmode sample-hold
attr recordingmode vector
attr title "contention window"
vector 18 QosShowcase.ap.wlan[0].mac.dcf packetSentToPeer:vector(packetBytes) ETV
attr interpolationmode none
attr recordingmode vector(packetBytes)
attr title "packets sent, packetBytes"
vector 19 QosShowcase.ap.wlan[0].mac.dcf packetSentToPeerUnicast:vector(packetBytes) ETV
attr interpolationmode none
attr recordingmode vector(packetBytes)
attr source ieee80211Unicast(packetSentToPeer)
attr title "packets sent: unicast, packetBytes"
vector 20 QosShowcase.ap.wlan[0].mac.dcf packetSentToPeerMulticast:vector(packetBytes) ETV
attr interpolationmode none
attr recordingmode vector(packetBytes)
attr source ieee80211Multicast(packetSentToPeer)
attr title "packets sent: multicast, packetBytes"
vector 21 QosShowcase.ap.wlan[0].mac.dcf packetSentToPeerBroadcast:vector(packetBytes) ETV
attr interpolationmode none
attr recordingmode vector(packetBytes)
attr source ieee80211Broadcast(packetSentToPeer)
attr title "packets sent: broadcast , packetBytes"
vector 22 QosShowcase.ap.wlan[0].mac.dcf packetSentToPeerWithRetry:vector(packetBytes) ETV
attr interpolationmode none
attr recordingmode vector(packetBytes)
attr source ieee80211Retry(packetSentToPeer)
attr title "packets sent: with retry, packetBytes"
vector 23 QosShowcase.ap.wlan[0].mac.dcf packetSentToPeerWithoutRetry:vector(packetBytes) ETV
attr interpolationmode none
attr recordingmode vector(packetBytes)
attr source ieee80211NotRetry(packetSentToPeer)
attr title "packets sent: without retry, packetBytes"
vector 24 QosShowcase.ap.wlan[0].mac.dcf packetReceivedFromPeer:vector(packetBytes) ETV
attr interpolationmode none
attr recordingmode vector(packetBytes)
attr title "packets received, packetBytes"
vector 25 QosShowcase.ap.wlan[0].mac.dcf packetReceivedFromPeerUnicast:vector(packetBytes) ETV
attr interpolationmode none
attr recordingmode vector(packetBytes)
attr source ieee80211Unicast(packetReceivedFromPeer)
attr title "packets received: unicast, packetBytes"
vector 26 QosShowcase.ap.wlan[0].mac.dcf packetReceivedFromPeerMulticast:vector(packetBytes) ETV
attr interpolationmode none
attr recordingmode vector(packetBytes)
attr source ieee80211Multicast(packetReceivedFromPeer)
attr title "packets received: multicast, packetBytes"
vector 27 QosShowcase.ap.wlan[0].mac.dcf packetReceivedFromPeerBroadcast:vector(packetBytes) ETV
attr interpolationmode none
attr recordingmode vector(packetBytes)
attr source ieee80211Broadcast(packetReceivedFromPeer)
attr title "packets received: broadcast, packetBytes"
vector 28 QosShowcase.ap.wlan[0].mac.dcf packetReceivedFromPeerWithRetry:vector(packetBytes) ETV
attr interpolationmode none
attr recordingmode vector(packetBytes)
attr source ieee80211Retry(packetReceivedFromPeer)
attr title "packets received: with retry, packetBytes"
vector 29 QosShowcase.ap.wlan[0].mac.dcf packetReceivedFromPeerWithoutRetry:vector(packetBytes) ETV
attr interpolationmode none
attr recordingmode vector(packetBytes)
attr source ieee80211NotRetry(packetReceivedFromPeer)
attr title "packets received: without retry, packetBytes"
vector 30 QosShowcase.ap.wlan[0].mac.dcf packetDrop:vector(packetBytes) ETV
attr interpolationmode none
attr recordingmode vector(packetBytes)
attr source packetDropped
attr title "packet drops, packetBytes"
vector 31 QosShowcase.ap.wlan[0].mac.dcf packetDropNotAddressedToUs:vector(packetBytes) ETV
attr interpolationmode none
attr recordingmode vector(packetBytes)
attr source packetDropReasonIsNotAddressedToUs(packetDropped)
attr title "packet drops: not addressed to us, packetBytes"
vector 32 QosShowcase.ap.wlan[0].mac.dcf packetDropQueueOverflow:vector(packetBytes) ETV
attr interpolationmode none
attr recordingmode vector(packetBytes)
attr source packetDropReasonIsQueueOverflow(packetDropped)
attr title "packet drops: queue overflow, packetBytes"
vector 33 QosShowcase.ap.wlan[0].mac.dcf packetDropRetryLimitReached:vector(packetBytes) ETV
attr interpolationmode none
attr recordingmode vector(packetBytes)
attr source packetDropReasonIsRetryLimitReached(packetDropped)
attr title "packet drops: retry limit reached, packetBytes"
vector 34 QosShowcase.ap.wlan[0].mac.dcf frameSequenceActive:vector ETV
attr autoWarmupFilter false
attr interpolationmode sample-hold
attr recordingmode vector
attr source warmup(count(frameSequenceStarted)-count(frameSequenceFinished))
attr title "frame sequence active"
vector 35 QosShowcase.ap.wlan[0].mac.dcf datarateSelected:vector ETV
attr interpolationmode none
attr recordingmode vector
attr title "datarates selected"
vector 36 QosShowcase.ap.wlan[0].mac.hcf.edca.edcaf[0].pendingQueue queueLength:vector ETV
attr autoWarmupFilter false
attr interpolationmode sample-hold
attr recordingmode vector
attr source "warmup(atomic(constant0(packetPushEnded) + count(packetPushStarted) - count(packetPulled) - count(packetRemoved) - count(packetDropped)))"
attr title "queue length"
attr unit pk
vector 37 QosShowcase.ap.wlan[0].mac.hcf.edca.edcaf[0].pendingQueue queueBitLength:vector ETV
attr autoWarmupFilter false
attr interpolationmode sample-hold
attr recordingmode vector
attr source "warmup(atomic(constant0(packetPushEnded) + sum(packetLength(packetPushStarted)) - sum(packetLength(packetPulled)) - sum(packetLength(packetRemoved)) - sum(packetLength(packetDropped))))"
attr title "queue bit length"
attr unit b
vector 38 QosShowcase.ap.wlan[0].mac.hcf.edca.edcaf[0].pendingQueue queueingTime:vector ETV
attr interpolationmode none
attr recordingmode vector
attr source queueingTime(packetPulled)
attr title "queueing times"
attr unit s
vector 39 QosShowcase.ap.wlan[0].mac.hcf.edca.edcaf[0].pendingQueue incomingPacketLengths:vector ETV
attr interpolationmode none
attr recordingmode vector
attr source packetLength(packetPushStarted)
attr title "incoming packet lengths"
attr unit b
vector 40 QosShowcase.ap.wlan[0].mac.hcf.edca.edcaf[0].pendingQueue incomingDataRate:vector ETV
attr interpolationmode linear
attr recordingmode vector
attr source throughput(packetPushStarted)
attr title "incoming datarate"
attr unit bps
vector 41 QosShowcase.ap.wlan[0].mac.hcf.edca.edcaf[0].pendingQueue outgoingPacketLengths:vector ETV
attr interpolationmode none
attr recordingmode vector
attr source packetLength(packetPulled)
attr title "outgoing packet lengths"
attr unit b
vector 42 QosShowcase.ap.wlan[0].mac.hcf.edca.edcaf[0].pendingQueue outgoingDataRate:vector ETV
attr interpolationmode linear
attr recordingmode vector
attr source throughput(packetPulled)
attr title "outgoing datarate"
attr unit bps
vector 43 QosShowcase.ap.wlan[0].mac.hcf.edca.edcaf[0].pendingQueue droppedPacketLengthsQueueOverflow:vector ETV
attr interpolationmode none
attr recordingmode vector
attr source packetLength(packetDropReasonIsQueueOverflow(packetDropped))
attr title "dropped packet lengths: queue overflow"
attr unit b
vector 44 QosShowcase.ap.wlan[0].mac.hcf.edca.edcaf[0].pendingQueue flowQueueingTime:vector ETV
attr interpolationmode none
attr recordingmode vector
attr source queueingTime(demuxFlow(packetPulled))
attr title "flow queueing times"
attr unit s
vector 45 QosShowcase.ap.wlan[0].mac.hcf.edca.edcaf[0].pendingQueue flowIncomingDataRate:vector ETV
attr interpolationmode linear
attr recordingmode vector
attr source throughput(flowPacketLength(demuxFlow(packetPushStarted)))
attr title "flow specific incoming data rate"
attr unit bps
vector 46 QosShowcase.ap.wlan[0].mac.hcf.edca.edcaf[0].pendingQueue flowOutgoingDataRate:vector ETV
attr interpolationmode linear
attr recordingmode vector
attr source throughput(flowPacketLength(demuxFlow(packetPulled)))
attr title "flow specific outgoing data rate"
attr unit bps
vector 47 QosShowcase.ap.wlan[0].mac.hcf.edca.edcaf[0].inProgressFrames queueingTime:vector ETV
attr interpolationmode none
attr recordingmode vector
attr source queueingTime(packetDequeued)
attr title "queueing times"
vector 48 QosShowcase.ap.wlan[0].mac.hcf.edca.edcaf[0].inProgressFrames queueLength:vector ETV
attr autoWarmupFilter false
attr interpolationmode sample-hold
attr recordingmode vector
attr source "warmup(count(packetEnqueued) - count(packetDequeued))"
attr title "queue length"
vector 49 QosShowcase.ap.wlan[0].mac.hcf.edca.edcaf[0].contention backoffPeriodGenerated:vector ETV
attr interpolationmode none
attr recordingmode vector
attr title "backoff periods"
vector 50 QosShowcase.ap.wlan[0].mac.hcf.edca.edcaf[0].contention backoffActive:vector ETV
attr autoWarmupFilter false
attr interpolationmode sample-hold
attr recordingmode vector
attr source warmup(count(backoffStarted)-count(backoffStopped))
attr title "backoff active"
vector 51 QosShowcase.ap.wlan[0].mac.hcf.edca.edcaf[0].contention stateChanged:vector ETV
attr enum IDLE,DEFER,IFS_AND_BACKOFF
attr interpolationmode none
attr recordingmode vector
attr title "contention state changed"
attr type enum
vector 52 QosShowcase.ap.wlan[0].mac.hcf.edca.edcaf[0].txopProcedure txopActive:vector ETV
attr autoWarmupFilter false
attr interpolationmode sample-hold
attr recordingmode vector
attr source warmup(count(txopStarted)-count(txopEnded))
attr title "txop active"
vector 53 QosShowcase.ap.wlan[0].mac.hcf.edca.edcaf[0].recoveryProcedure contentionWindowChanged:vector ETV
attr interpolationmode sample-hold
attr recordingmode vector
attr title "contention window"
vector 54 QosShowcase.ap.wlan[0].mac.hcf.edca.edcaf[0] packetSentToPeer:vector(packetBytes) ETV
attr interpolationmode none
attr recordingmode vector(packetBytes)
attr title "packets sent, packetBytes"
vector 55 QosShowcase.ap.wlan[0].mac.hcf.edca.edcaf[0] packetSentToPeerUnicast:vector(packetBytes) ETV
attr interpolationmode none
attr recordingmode vector(packetBytes)
attr source ieee80211Unicast(packetSentToPeer)
attr title "packets sent: unicast, packetBytes"
vector 56 QosShowcase.ap.wlan[0].mac.hcf.edca.edcaf[0] packetSentToPeerMulticast:vector(packetBytes) ETV
attr interpolationmode none
attr recordingmode vector(packetBytes)
attr source ieee80211Multicast(packetSentToPeer)
attr title "packets sent: multicast, packetBytes"
vector 57 QosShowcase.ap.wlan[0].mac.hcf.edca.edcaf[0] packetSentToPeerBroadcast:vector(packetBytes) ETV
attr interpolationmode none
attr recordingmode vector(packetBytes)
attr source ieee80211Broadcast(packetSentToPeer)
attr title "packets sent: broadcast , packetBytes"
vector 58 QosShowcase.ap.wlan[0].mac.hcf.edca.edcaf[0] packetSentToPeerWithRetry:vector(packetBytes) ETV
attr interpolationmode none
attr recordingmode vector(packetBytes)
attr source ieee80211Retry(packetSentToPeer)
attr title "packets sent: with retry, packetBytes"
vector 59 QosShowcase.ap.wlan[0].mac.hcf.edca.edcaf[0] packetSentToPeerWithoutRetry:vector(packetBytes) ETV
attr interpolationmode none
attr recordingmode vector(packetBytes)
attr source ieee80211NotRetry(packetSentToPeer)
attr title "packets sent: without retry, packetBytes"
vector 60 QosShowcase.ap.wlan[0].mac.hcf.edca.edcaf[1].pendingQueue queueLength:vector ETV
attr autoWarmupFilter false
attr interpolationmode sample-hold
attr recordingmode vector
attr source "warmup(atomic(constant0(packetPushEnded) + count(packetPushStarted) - count(packetPulled) - count(packetRemoved) - count(packetDropped)))"
attr title "queue length"
attr unit pk
vector 61 QosShowcase.ap.wlan[0].mac.hcf.edca.edcaf[1].pendingQueue queueBitLength:vector ETV
attr autoWarmupFilter false
attr interpolationmode sample-hold
attr recordingmode vector
attr source "warmup(atomic(constant0(packetPushEnded) + sum(packetLength(packetPushStarted)) - sum(packetLength(packetPulled)) - sum(packetLength(packetRemoved)) - sum(packetLength(packetDropped))))"
attr title "queue bit length"
attr unit b
vector 62 QosShowcase.ap.wlan[0].mac.hcf.edca.edcaf[1].pendingQueue queueingTime:vector ETV
attr interpolationmode none
attr recordingmode vector
attr source queueingTime(packetPulled)
attr title "queueing times"
attr unit s
vector 63 QosShowcase.ap.wlan[0].mac.hcf.edca.edcaf[1].pendingQueue incomingPacketLengths:vector ETV
attr interpolationmode none
attr recordingmode vector
attr source packetLength(packetPushStarted)
attr title "incoming packet lengths"
attr unit b
vector 64 QosShowcase.ap.wlan[0].mac.hcf.edca.edcaf[1].pendingQueue incomingDataRate:vector ETV
attr interpolationmode linear
attr recordingmode vector
attr source throughput(packetPushStarted)
attr title "incoming datarate"
attr unit bps
vector 65 QosShowcase.ap.wlan[0].mac.hcf.edca.edcaf[1].pendingQueue outgoingPacketLengths:vector ETV
attr interpolationmode none
attr recordingmode vector
attr source packetLength(packetPulled)
attr title "outgoing packet lengths"
attr unit b
vector 66 QosShowcase.ap.wlan[0].mac.hcf.edca.edcaf[1].pendingQueue outgoingDataRate:vector ETV
attr interpolationmode linear
attr recordingmode vector
attr source throughput(packetPulled)
attr title "outgoing datarate"
attr unit bps
vector 67 QosShowcase.ap.wlan[0].mac.hcf.edca.edcaf[1].pendingQueue droppedPacketLengthsQueueOverflow:vector ETV
attr interpolationmode none
attr recordingmode vector
attr source packetLength(packetDropReasonIsQueueOverflow(packetDropped))
attr title "dropped packet lengths: queue overflow"
attr unit b
vector 68 QosShowcase.ap.wlan[0].mac.hcf.edca.edcaf[1].pendingQueue flowQueueingTime:vector ETV
attr interpolationmode none
attr recordingmode vector
attr source queueingTime(demuxFlow(packetPulled))
attr title "flow queueing times"
attr unit s
vector 69 QosShowcase.ap.wlan[0].mac.hcf.edca.edcaf[1].pendingQueue flowIncomingDataRate:vector ETV
attr interpolationmode linear
attr recordingmode vector
attr source throughput(flowPacketLength(demuxFlow(packetPushStarted)))
attr title "flow specific incoming data rate"
attr unit bps
vector 70 QosShowcase.ap.wlan[0].mac.hcf.edca.edcaf[1].pendingQueue flowOutgoingDataRate:vector ETV
attr interpolationmode linear
attr recordingmode vector
attr source throughput(flowPacketLength(demuxFlow(packetPulled)))
attr title "flow specific outgoing data rate"
attr unit bps
vector 71 QosShowcase.ap.wlan[0].mac.hcf.edca.edcaf[1].inProgressFrames queueingTime:vector ETV
attr interpolationmode none
attr recordingmode vector
attr source queueingTime(packetDequeued)
attr title "queueing times"
vector 72 QosShowcase.ap.wlan[0].mac.hcf.edca.edcaf[1].inProgressFrames queueLength:vector ETV
attr autoWarmupFilter false
attr interpolationmode sample-hold
attr recordingmode vector
attr source "warmup(count(packetEnqueued) - count(packetDequeued))"
attr title "queue length"
vector 73 QosShowcase.ap.wlan[0].mac.hcf.edca.edcaf[1].contention backoffPeriodGenerated:vector ETV
attr interpolationmode none
attr recordingmode vector
attr title "backoff periods"
vector 74 QosShowcase.ap.wlan[0].mac.hcf.edca.edcaf[1].contention backoffActive:vector ETV
attr autoWarmupFilter false
attr interpolationmode sample-hold
attr recordingmode vector
attr source warmup(count(backoffStarted)-count(backoffStopped))
attr title "backoff active"
vector 75 QosShowcase.ap.wlan[0].mac.hcf.edca.edcaf[1].contention stateChanged:vector ETV
attr enum IDLE,DEFER,IFS_AND_BACKOFF
attr interpolationmode none
attr recordingmode vector
attr title "contention state changed"
attr type enum
vector 76 QosShowcase.ap.wlan[0].mac.hcf.edca.edcaf[1].txopProcedure txopActive:vector ETV
attr autoWarmupFilter false
attr interpolationmode sample-hold
attr recordingmode vector
attr source warmup(count(txopStarted)-count(txopEnded))
attr title "txop active"
vector 77 QosShowcase.ap.wlan[0].mac.hcf.edca.edcaf[1].recoveryProcedure contentionWindowChanged:vector ETV
attr interpolationmode sample-hold
attr recordingmode vector
attr title "contention window"
vector 78 QosShowcase.ap.wlan[0].mac.hcf.edca.edcaf[1] packetSentToPeer:vector(packetBytes) ETV
attr interpolationmode none
attr recordingmode vector(packetBytes)
attr title "packets sent, packetBytes"
vector 79 QosShowcase.ap.wlan[0].mac.hcf.edca.edcaf[1] packetSentToPeerUnicast:vector(packetBytes) ETV
attr interpolationmode none
attr recordingmode vector(packetBytes)
attr source ieee80211Unicast(packetSentToPeer)
attr title "packets sent: unicast, packetBytes"
vector 80 QosShowcase.ap.wlan[0].mac.hcf.edca.edcaf[1] packetSentToPeerMulticast:vector(packetBytes) ETV
attr interpolationmode none
attr recordingmode vector(packetBytes)
attr source ieee80211Multicast(packetSentToPeer)
attr title "packets sent: multicast, packetBytes"
vector 81 QosShowcase.ap.wlan[0].mac.hcf.edca.edcaf[1] packetSentToPeerBroadcast:vector(packetBytes) ETV
attr interpolationmode none
attr recordingmode vector(packetBytes)
attr source ieee80211Broadcast(packetSentToPeer)
attr title "packets sent: broadcast , packetBytes"
vector 82 QosShowcase.ap.wlan[0].mac.hcf.edca.edcaf[1] packetSentToPeerWithRetry:vector(packetBytes) ETV
attr interpolationmode none
attr recordingmode vector(packetBytes)
attr source ieee80211Retry(packetSentToPeer)
attr title "packets sent: with retry, packetBytes"
vector 83 QosShowcase.ap.wlan[0].mac.hcf.edca.edcaf[1] packetSentToPeerWithoutRetry:vector(packetBytes) ETV
attr interpolationmode none
attr recordingmode vector(packetBytes)
attr source ieee80211NotRetry(packetSentToPeer)
attr title "packets sent: without retry, packetBytes"
vector 84 QosShowcase.ap.wlan[0].mac.hcf.edca.edcaf[2].pendingQueue queueLength:vector ETV
attr autoWarmupFilter false
attr interpolationmode sample-hold
attr recordingmode vector
attr source "warmup(atomic(constant0(packetPushEnded) + count(packetPushStarted) - count(packetPulled) - count(packetRemoved) - count(packetDropped)))"
attr title "queue length"
attr unit pk
vector 85 QosShowcase.ap.wlan[0].mac.hcf.edca.edcaf[2].pendingQueue queueBitLength:vector ETV
attr autoWarmupFilter false
attr interpolationmode sample-hold
attr recordingmode vector
attr source "warmup(atomic(constant0(packetPushEnded) + sum(packetLength(packetPushStarted)) - sum(packetLength(packetPulled)) - sum(packetLength(packetRemoved)) - sum(packetLength(packetDropped))))"
attr title "queue bit length"
attr unit b
vector 86 QosShowcase.ap.wlan[0].mac.hcf.edca.edcaf[2].pendingQueue queueingTime:vector ETV
attr interpolationmode none
attr recordingmode vector
attr source queueingTime(packetPulled)
attr title "queueing times"
attr unit s
vector 87 QosShowcase.ap.wlan[0].mac.hcf.edca.edcaf[2].pendingQueue incomingPacketLengths:vector ETV
attr interpolationmode none
attr recordingmode vector
attr source packetLength(packetPushStarted)
attr title "incoming packet lengths"
attr unit b
vector 88 QosShowcase.ap.wlan[0].mac.hcf.edca.edcaf[2].pendingQueue incomingDataRate:vector ETV
attr interpolationmode linear
attr recordingmode vector
attr source throughput(packetPushStarted)
attr title "incoming datarate"
attr unit bps
vector 89 QosShowcase.ap.wlan[0].mac.hcf.edca.edcaf[2].pendingQueue outgoingPacketLengths:vector ETV
attr interpolationmode none
attr recordingmode vector
attr source packetLength(packetPulled)
attr title "outgoing packet lengths"
attr unit b
vector 90 QosShowcase.ap.wlan[0].mac.hcf.edca.edcaf[2].pendingQueue outgoingDataRate:vector ETV
attr interpolationmode linear
attr recordingmode vector
attr source throughput(packetPulled)
attr title "outgoing datarate"
attr unit bps
vector 91 QosShowcase.ap.wlan[0].mac.hcf.edca.edcaf[2].pendingQueue droppedPacketLengthsQueueOverflow:vector ETV
attr interpolationmode none
attr recordingmode vector
attr source packetLength(packetDropReasonIsQueueOverflow(packetDropped))
attr title "dropped packet lengths: queue overflow"
attr unit b
vector 92 QosShowcase.ap.wlan[0].mac.hcf.edca.edcaf[2].pendingQueue flowQueueingTime:vector ETV
attr interpolationmode none
attr recordingmode vector
attr source queueingTime(demuxFlow(packetPulled))
attr title "flow queueing times"
attr unit s
vector 93 QosShowcase.ap.wlan[0].mac.hcf.edca.edcaf[2].pendingQueue flowIncomingDataRate:vector ETV
attr interpolationmode linear
attr recordingmode vector
attr source throughput(flowPacketLength(demuxFlow(packetPushStarted)))
attr title "flow specific incoming data rate"
attr unit bps
vector 94 QosShowcase.ap.wlan[0].mac.hcf.edca.edcaf[2].pendingQueue flowOutgoingDataRate:vector ETV
attr interpolationmode linear
attr recordingmode vector
attr source throughput(flowPacketLength(demuxFlow(packetPulled)))
attr title "flow specific outgoing data rate"
attr unit bps
vector 95 QosShowcase.ap.wlan[0].mac.hcf.edca.edcaf[2].inProgressFrames queueingTime:vector ETV
attr interpolationmode none
attr recordingmode vector
attr source queueingTime(packetDequeued)
attr title "queueing times"
vector 96 QosShowcase.ap.wlan[0].mac.hcf.edca.edcaf[2].inProgressFrames queueLength:vector ETV
attr autoWarmupFilter false
attr interpolationmode sample-hold
attr recordingmode vector
attr source "warmup(count(packetEnqueued) - count(packetDequeued))"
attr title "queue length"
vector 97 QosShowcase.ap.wlan[0].mac.hcf.edca.edcaf[2].contention backoffPeriodGenerated:vector ETV
attr interpolationmode none
attr recordingmode vector
attr title "backoff periods"
vector 98 QosShowcase.ap.wlan[0].mac.hcf.edca.edcaf[2].contention backoffActive:vector ETV
attr autoWarmupFilter false
attr interpolationmode sample-hold
attr recordingmode vector
attr source warmup(count(backoffStarted)-count(backoffStopped))
attr title "backoff active"
vector 99 QosShowcase.ap.wlan[0].mac.hcf.edca.edcaf[2].contention stateChanged:vector ETV
attr enum IDLE,DEFER,IFS_AND_BACKOFF
attr interpolationmode none
attr recordingmode vector
attr title "contention state changed"
attr type enum
vector 100 QosShowcase.ap.wlan[0].mac.hcf.edca.edcaf[2].txopProcedure txopActive:vector ETV
attr autoWarmupFilter false
attr interpolationmode sample-hold
attr recordingmode vector
attr source warmup(count(txopStarted)-count(txopEnded))
attr title "txop active"
vector 101 QosShowcase.ap.wlan[0].mac.hcf.edca.edcaf[2].recoveryProcedure contentionWindowChanged:vector ETV
attr interpolationmode sample-hold
attr recordingmode vector
attr title "contention window"
vector 102 QosShowcase.ap.wlan[0].mac.hcf.edca.edcaf[2] packetSentToPeer:vector(packetBytes) ETV
attr interpolationmode none
attr recordingmode vector(packetBytes)
attr title "packets sent, packetBytes"
vector 103 QosShowcase.ap.wlan[0].mac.hcf.edca.edcaf[2] packetSentToPeerUnicast:vector(packetBytes) ETV
attr interpolationmode none
attr recordingmode vector(packetBytes)
attr source ieee80211Unicast(packetSentToPeer)
attr title "packets sent: unicast, packetBytes"
vector 104 QosShowcase.ap.wlan[0].mac.hcf.edca.edcaf[2] packetSentToPeerMulticast:vector(packetBytes) ETV
attr interpolationmode none
attr recordingmode vector(packetBytes)
attr source ieee80211Multicast(packetSentToPeer)